ITEM: TIMESTEP
100500
ITEM: NUMBER OF ATOMS
216
ITEM: BOX BOUNDS pp pp pp
0.0000000000000000e+00 1.6331106185900001e+01
0.0000000000000000e+00 1.6331106185900001e+01
0.0000000000000000e+00 1.6331106185900001e+01
ITEM: ATOMS id type xs ys zs
190 1 0.0204 0.100833 0.083313
124 1 0.269399 0.018964 0.16708
199 1 0.353048 0.101974 0.0833666
16 1 0.436076 0.0190213 -0.000606756
133 1 0.603729 0.0178019 0.16608
208 1 0.686449 0.102243 0.083321
115 1 0.937322 0.0181146 0.167049
37 1 0.186649 0.267944 0.0830133
172 1 0.269521 0.18458 -0.000339699
64 1 0.436579 0.185779 0.166396
46 1 0.52039 0.268429 0.0829472
181 1 0.603691 0.185259 -0.000292687
28 1 0.854348 0.267868 0.0831129
193 1 0.0207417 0.433843 0.0836704
1 1 0.103658 0.351 -0.000530389
202 1 0.35445 0.43542 0.0822663
10 1 0.437564 0.351677 -0.000495621
211 1 0.688189 0.434966 0.0831116
109 1 0.936641 0.351684 0.166749
58 1 0.103467 0.518012 0.166889
40 1 0.18684 0.601784 0.0840136
49 1 0.521409 0.602056 0.0830377
184 1 0.604575 0.518164 -0.000175258
76 1 0.770887 0.517766 0.166954
31 1 0.854073 0.600683 0.0833165
196 1 0.0205727 0.767926 0.0827589
4 1 0.103932 0.684683 -0.000287386
121 1 0.270648 0.685287 0.166598
205 1 0.354829 0.767875 0.0832415
13 1 0.43839 0.685129 -0.000393556
130 1 0.604823 0.685878 0.166238
214 1 0.688126 0.768767 0.0828514
22 1 0.770974 0.684869 6.4089e-05
112 1 0.937778 0.68425 0.166117
43 1 0.186776 0.935136 0.0833284
70 1 0.436801 0.852693 0.166411
52 1 0.519664 0.935631 0.0824823
79 1 0.770942 0.851846 0.166926
34 1 0.853519 0.935625 0.0833993
92 1 0.186508 0.102029 0.250654
17 1 0.436441 0.0197321 0.332273
101 1 0.520614 0.101937 0.24841
26 1 0.770769 0.0188745 0.333662
83 1 0.853661 0.102274 0.250021
55 1 0.103456 0.18484 0.166563
137 1 0.0205488 0.268321 0.24971
146 1 0.35338 0.268907 0.250517
73 1 0.770016 0.185525 0.16659
155 1 0.686099 0.268926 0.249364
164 1 0.936747 0.185738 0.333356
2 1 0.104159 0.352175 0.332572
118 1 0.271025 0.351581 0.16557
95 1 0.188115 0.435283 0.24961
11 1 0.436907 0.352814 0.333498
127 1 0.603296 0.352515 0.165724
104 1 0.520285 0.436008 0.249479
20 1 0.769265 0.351438 0.333443
86 1 0.853528 0.43458 0.250998
140 1 0.0201029 0.60126 0.250568
67 1 0.437332 0.518997 0.16587
149 1 0.354316 0.602144 0.249862
185 1 0.60416 0.51926 0.332942
158 1 0.68787 0.602152 0.249844
167 1 0.936749 0.518212 0.333881
98 1 0.187386 0.768895 0.249292
14 1 0.437736 0.685555 0.332712
107 1 0.520727 0.769205 0.249291
23 1 0.770686 0.685675 0.333218
89 1 0.854717 0.768002 0.249728
61 1 0.103396 0.851686 0.166518
143 1 0.0202421 0.934796 0.25043
152 1 0.353313 0.935657 0.249727
188 1 0.603364 0.852884 0.333152
161 1 0.68763 0.935297 0.250055
170 1 0.936804 0.851478 0.333904
8 1 0.103323 0.0182357 0.333302
191 1 0.0198131 0.101824 0.416508
200 1 0.353735 0.102501 0.416487
134 1 0.603213 0.0192121 0.499743
209 1 0.686737 0.102252 0.416246
116 1 0.936893 0.018747 0.500289
56 1 0.103544 0.18499 0.499863
173 1 0.269834 0.185448 0.33378
38 1 0.186606 0.268778 0.417146
65 1 0.436605 0.185941 0.499869
182 1 0.603324 0.185001 0.33222
47 1 0.519917 0.268438 0.415751
74 1 0.770131 0.185333 0.500014
29 1 0.853319 0.268765 0.41664
194 1 0.0208419 0.43485 0.416485
203 1 0.353405 0.435913 0.416992
128 1 0.603168 0.351789 0.499064
212 1 0.6866 0.435607 0.416311
59 1 0.103846 0.518954 0.499135
176 1 0.270406 0.519717 0.333386
41 1 0.186912 0.602687 0.416149
68 1 0.437643 0.519098 0.499556
50 1 0.520996 0.602741 0.416602
77 1 0.770402 0.519051 0.49998
32 1 0.853793 0.602381 0.416781
5 1 0.103343 0.685759 0.332613
197 1 0.0202911 0.768421 0.416793
206 1 0.354099 0.768875 0.415871
131 1 0.604304 0.685835 0.499776
215 1 0.687292 0.769606 0.415954
113 1 0.937214 0.685446 0.500509
179 1 0.270223 0.852339 0.333043
44 1 0.186573 0.935213 0.417128
71 1 0.437152 0.852236 0.499485
53 1 0.519722 0.936404 0.415978
80 1 0.770082 0.852342 0.500152
35 1 0.85377 0.935352 0.417134
125 1 0.270332 0.0189784 0.499271
93 1 0.186737 0.101479 0.58342
102 1 0.520384 0.10277 0.583067
27 1 0.770304 0.0185282 0.667148
84 1 0.853416 0.102045 0.583507
138 1 0.0196674 0.268622 0.5825
174 1 0.270667 0.185367 0.665595
147 1 0.353701 0.269264 0.583484
183 1 0.603712 0.18577 0.667235
156 1 0.686595 0.269064 0.583063
165 1 0.937127 0.184523 0.666167
119 1 0.270079 0.3522 0.500277
96 1 0.186829 0.435784 0.583652
105 1 0.520729 0.435501 0.583129
110 1 0.936477 0.352129 0.499426
87 1 0.853914 0.435707 0.583309
141 1 0.0213369 0.601926 0.58323
177 1 0.270843 0.518632 0.666781
150 1 0.353513 0.602222 0.582526
186 1 0.604416 0.518938 0.666805
159 1 0.68737 0.602703 0.583381
168 1 0.938484 0.518206 0.666434
6 1 0.104399 0.684651 0.667695
122 1 0.270392 0.686172 0.499514
99 1 0.186658 0.768783 0.583693
15 1 0.437189 0.68507 0.666015
108 1 0.520339 0.768846 0.582843
24 1 0.770583 0.685046 0.667278
90 1 0.852999 0.76882 0.583254
62 1 0.103107 0.851791 0.500544
144 1 0.0198173 0.935032 0.583785
153 1 0.353642 0.935877 0.582499
189 1 0.603977 0.851917 0.666264
162 1 0.686753 0.93623 0.583321
171 1 0.937001 0.8511 0.666911
9 1 0.103848 0.0177711 0.666824
192 1 0.020615 0.101466 0.749888
18 1 0.437007 0.0187891 0.666032
201 1 0.353906 0.10234 0.749091
135 1 0.603068 0.0184918 0.83333
210 1 0.686507 0.101916 0.750172
117 1 0.936901 0.018323 0.833378
57 1 0.104542 0.185136 0.832229
39 1 0.187898 0.268969 0.749478
48 1 0.519939 0.269394 0.749733
75 1 0.770389 0.185012 0.832888
30 1 0.853917 0.267951 0.749641
3 1 0.103905 0.351177 0.665656
195 1 0.0213164 0.434418 0.749918
12 1 0.437031 0.352596 0.666311
204 1 0.354256 0.43525 0.749855
129 1 0.603863 0.351997 0.833148
21 1 0.771022 0.351788 0.666158
213 1 0.687607 0.435047 0.74967
111 1 0.937413 0.351472 0.832988
60 1 0.104659 0.517722 0.833106
42 1 0.188131 0.601766 0.750678
69 1 0.437358 0.518851 0.83343
51 1 0.52059 0.602105 0.749959
33 1 0.85508 0.601857 0.749868
198 1 0.0208695 0.768272 0.750427
207 1 0.354054 0.768766 0.749502
132 1 0.603925 0.684672 0.833937
216 1 0.687013 0.768257 0.750552
114 1 0.937848 0.685088 0.834335
180 1 0.270857 0.852229 0.665856
45 1 0.187162 0.934461 0.749831
72 1 0.437365 0.852305 0.832878
54 1 0.520519 0.935492 0.74924
81 1 0.770742 0.85176 0.833283
36 1 0.853792 0.935134 0.750144
7 1 0.103754 0.017812 0.999775
126 1 0.270607 0.0187745 0.832447
91 1 0.186739 0.101424 0.916053
100 1 0.52008 0.10213 0.916245
25 1 0.769796 0.0187455 1.00023
82 1 0.853332 0.101707 0.916565
136 1 0.0206874 0.267274 0.915568
66 1 0.436692 0.185668 0.833025
145 1 0.353399 0.268312 0.91716
154 1 0.687018 0.268602 0.91606
163 1 0.937443 0.184674 0.99996
120 1 0.271219 0.351801 0.833242
94 1 0.187754 0.434463 0.916933
103 1 0.520637 0.435373 0.916529
19 1 0.771031 0.351094 0.999761
85 1 0.85432 0.434749 0.916142
139 1 0.0208885 0.600834 0.916707
175 1 0.270251 0.518823 1.00032
148 1 0.35429 0.601947 0.917259
78 1 0.771128 0.51828 0.832523
157 1 0.688209 0.60138 0.916271
166 1 0.937438 0.517415 1.0002
123 1 0.271467 0.685486 0.833742
97 1 0.18784 0.768676 0.917287
106 1 0.521251 0.76934 0.916019
88 1 0.853816 0.76854 0.916773
63 1 0.103963 0.851619 0.833651
142 1 0.0199363 0.934444 0.916931
178 1 0.271697 0.85222 1.00055
151 1 0.353653 0.935332 0.915887
187 1 0.604023 0.852008 1.00039
160 1 0.68679 0.935097 0.916128
169 1 0.936937 0.851961 1.00083
ITEM: TIMESTEP
101000
ITEM: NUMBER OF ATOMS
216
ITEM: BOX BOUNDS pp pp pp
0.0000000000000000e+00 1.6331106185900001e+01
0.0000000000000000e+00 1.6331106185900001e+01
0.0000000000000000e+00 1.6331106185900001e+01
ITEM: ATOMS id type xs ys zs
190 1 0.0189771 0.102212 0.0818382
124 1 0.269031 0.0191218 0.165627
199 1 0.3521 0.102501 0.0820805
16 1 0.435654 0.0190491 -0.000700165
133 1 0.602059 0.020886 0.165342
208 1 0.68626 0.103058 0.0818042
115 1 0.935038 0.0187766 0.164759
37 1 0.185098 0.269273 0.0814111
172 1 0.268956 0.185615 -0.00120721
64 1 0.434488 0.186334 0.165386
46 1 0.518101 0.269481 0.0819285
181 1 0.60175 0.186326 -0.00140574
28 1 0.852278 0.269464 0.0820192
193 1 0.0197697 0.435574 0.0842173
1 1 0.101534 0.352981 -0.00120391
202 1 0.352806 0.435261 0.0836896
10 1 0.43577 0.353248 -0.00155568
211 1 0.686849 0.435812 0.0827497
109 1 0.934752 0.35245 0.166293
58 1 0.102357 0.519113 0.16823
40 1 0.185468 0.602598 0.0831633
49 1 0.519582 0.603063 0.0821166
184 1 0.603209 0.518583 6.187e-05
76 1 0.769561 0.51955 0.166762
31 1 0.852559 0.601823 0.0821462
196 1 0.0181167 0.76809 0.0835273
4 1 0.101531 0.685202 -0.000450039
121 1 0.26917 0.686812 0.165881
205 1 0.352178 0.769497 0.0822807
13 1 0.435611 0.686165 -0.000823201
130 1 0.602027 0.686457 0.165684
214 1 0.686115 0.76846 0.081452
22 1 0.769224 0.68528 -0.00205945
112 1 0.934596 0.684523 0.166679
43 1 0.185551 0.935517 0.0824603
70 1 0.435765 0.853308 0.165464
52 1 0.520403 0.935693 0.0819607
79 1 0.767995 0.852564 0.165595
34 1 0.852107 0.934112 0.082562
92 1 0.185793 0.103678 0.248465
17 1 0.436118 0.0197221 0.331515
101 1 0.518844 0.104622 0.2484
26 1 0.769629 0.0198065 0.332167
83 1 0.852178 0.102706 0.248176
55 1 0.101652 0.186332 0.165051
137 1 0.018304 0.269139 0.249127
146 1 0.352033 0.269351 0.249969
73 1 0.768939 0.187109 0.165818
155 1 0.685124 0.27008 0.249086
164 1 0.934422 0.186312 0.33277
2 1 0.101948 0.351429 0.33271
118 1 0.268473 0.351751 0.166041
95 1 0.186089 0.435354 0.250441
11 1 0.435873 0.35349 0.332519
127 1 0.601567 0.352891 0.165329
104 1 0.519093 0.436525 0.248654
20 1 0.768212 0.353263 0.332455
86 1 0.852602 0.43638 0.250406
140 1 0.0187604 0.602463 0.250916
67 1 0.436096 0.520217 0.165594
149 1 0.352005 0.603189 0.24911
185 1 0.602571 0.519663 0.332977
158 1 0.685184 0.603247 0.24871
167 1 0.936286 0.518168 0.334705
98 1 0.186298 0.770321 0.249034
14 1 0.435513 0.687144 0.331549
107 1 0.519218 0.770561 0.248966
23 1 0.768764 0.686275 0.332192
89 1 0.851838 0.769691 0.248661
61 1 0.101735 0.852668 0.165859
143 1 0.0182236 0.935863 0.249268
152 1 0.351701 0.93567 0.249094
188 1 0.602438 0.853789 0.331566
161 1 0.685637 0.937636 0.248666
170 1 0.935695 0.851517 0.332723
8 1 0.101727 0.0202107 0.331494
191 1 0.0176157 0.102172 0.41566
200 1 0.352805 0.101291 0.415903
134 1 0.602681 0.0196699 0.500096
209 1 0.68558 0.102298 0.415378
116 1 0.936003 0.0187387 0.500002
56 1 0.102058 0.184826 0.498793
173 1 0.269472 0.185492 0.332962
38 1 0.185864 0.268394 0.416377
65 1 0.435097 0.186262 0.498494
182 1 0.602481 0.186494 0.332144
47 1 0.518846 0.269122 0.415169
74 1 0.768219 0.185852 0.498286
29 1 0.851135 0.269928 0.415388
194 1 0.0200709 0.435437 0.416684
203 1 0.353037 0.43614 0.416226
128 1 0.600962 0.353135 0.498522
212 1 0.686099 0.43689 0.416715
59 1 0.10316 0.519723 0.499644
176 1 0.269861 0.51897 0.332918
41 1 0.186522 0.60263 0.415767
68 1 0.436649 0.520193 0.499323
50 1 0.518536 0.604072 0.4153
77 1 0.769319 0.519891 0.500346
32 1 0.851997 0.602606 0.416369
5 1 0.103383 0.686261 0.332335
197 1 0.0196389 0.768522 0.415941
206 1 0.353545 0.769545 0.416045
131 1 0.602467 0.687151 0.49775
215 1 0.686268 0.770426 0.415105
113 1 0.935899 0.685598 0.499357
179 1 0.269388 0.852947 0.333416
44 1 0.184565 0.936714 0.415104
71 1 0.436386 0.853375 0.498688
53 1 0.519453 0.937169 0.415541
80 1 0.769745 0.853033 0.49929
35 1 0.852761 0.935928 0.415934
125 1 0.269386 0.0191085 0.499372
93 1 0.18614 0.101987 0.582334
102 1 0.519211 0.103877 0.582221
27 1 0.769959 0.0190255 0.665678
84 1 0.852414 0.102888 0.582201
138 1 0.0190799 0.268887 0.582587
174 1 0.269214 0.185958 0.665884
147 1 0.351941 0.269501 0.582377
183 1 0.602401 0.187123 0.665747
156 1 0.684454 0.26985 0.581276
165 1 0.935961 0.185093 0.665447
119 1 0.268623 0.352586 0.498822
96 1 0.186159 0.436171 0.582689
105 1 0.519285 0.436108 0.583722
110 1 0.935589 0.352238 0.498783
87 1 0.851899 0.435347 0.582894
141 1 0.018521 0.602039 0.582805
177 1 0.269326 0.519851 0.666056
150 1 0.352606 0.603622 0.582341
186 1 0.603398 0.519566 0.665659
159 1 0.685057 0.603947 0.581826
168 1 0.935327 0.518992 0.666182
6 1 0.102732 0.684921 0.665902
122 1 0.269361 0.686702 0.499053
99 1 0.185826 0.769421 0.582954
15 1 0.436535 0.68659 0.665633
108 1 0.51973 0.769792 0.582241
24 1 0.769788 0.68617 0.66586
90 1 0.853941 0.769931 0.582292
62 1 0.102964 0.852015 0.498959
144 1 0.0203248 0.935594 0.582656
153 1 0.352893 0.936129 0.582653
189 1 0.603239 0.852862 0.665884
162 1 0.686078 0.936189 0.582599
171 1 0.93621 0.853544 0.666175
9 1 0.103147 0.0188706 0.666153
192 1 0.0190604 0.101737 0.748913
18 1 0.436178 0.0199654 0.665464
201 1 0.352251 0.102329 0.74971
135 1 0.603646 0.0197317 0.83131
210 1 0.686004 0.102628 0.747771
117 1 0.935769 0.0191016 0.833627
57 1 0.102089 0.18497 0.832242
39 1 0.18473 0.268761 0.748692
48 1 0.518762 0.269524 0.748854
75 1 0.769333 0.184345 0.831533
30 1 0.851812 0.267629 0.747895
3 1 0.102975 0.353006 0.665422
195 1 0.0189766 0.435436 0.748988
12 1 0.434977 0.35345 0.666025
204 1 0.352494 0.436798 0.749745
129 1 0.602304 0.352566 0.831934
21 1 0.767997 0.351878 0.665378
213 1 0.685685 0.435843 0.749076
111 1 0.935119 0.351672 0.831187
60 1 0.102577 0.518988 0.831761
42 1 0.186839 0.602683 0.750009
69 1 0.43639 0.519528 0.83278
51 1 0.519543 0.603024 0.748961
33 1 0.851518 0.602038 0.749965
198 1 0.0190495 0.768265 0.748509
207 1 0.352963 0.769937 0.748972
132 1 0.603153 0.686055 0.832751
216 1 0.685979 0.768873 0.748872
114 1 0.936699 0.684586 0.832276
180 1 0.269082 0.853495 0.665925
45 1 0.18532 0.935625 0.7505
72 1 0.436646 0.853024 0.831634
54 1 0.519791 0.935944 0.748658
81 1 0.769446 0.852423 0.832794
36 1 0.852422 0.935991 0.750254
7 1 0.101585 0.0185506 0.999135
126 1 0.269724 0.0182809 0.833446
91 1 0.185072 0.101874 0.916073
100 1 0.519454 0.101587 0.91554
25 1 0.769798 0.0188546 0.999363
82 1 0.852361 0.10309 0.916044
136 1 0.0194266 0.26941 0.914212
66 1 0.436276 0.185806 0.83272
145 1 0.352377 0.269264 0.915492
154 1 0.68626 0.268527 0.914809
163 1 0.936463 0.186555 0.998664
120 1 0.268689 0.352702 0.832173
94 1 0.185273 0.435772 0.915906
103 1 0.520104 0.436148 0.915544
19 1 0.769141 0.352105 0.998541
85 1 0.8531 0.435388 0.915264
139 1 0.0190286 0.600661 0.916574
175 1 0.269088 0.518644 0.999714
148 1 0.352828 0.601783 0.916216
78 1 0.768877 0.517928 0.832618
157 1 0.685874 0.601584 0.915893
166 1 0.935927 0.517846 0.999996
123 1 0.270426 0.685664 0.832961
97 1 0.185853 0.768618 0.916269
106 1 0.518639 0.768574 0.91554
88 1 0.853193 0.768606 0.914747
63 1 0.10214 0.851804 0.832325
142 1 0.0193401 0.935106 0.915457
178 1 0.269201 0.852587 0.999276
151 1 0.353388 0.93485 0.915928
187 1 0.6025 0.851752 0.998496
160 1 0.685514 0.93569 0.915449
169 1 0.93624 0.851262 0.998834
ITEM: TIMESTEP
101500
ITEM: NUMBER OF ATOMS
216
ITEM: BOX BOUNDS pp pp pp
0.0000000000000000e+00 1.6331106185900001e+01
0.0000000000000000e+00 1.6331106185900001e+01
0.0000000000000000e+00 1.6331106185900001e+01
ITEM: ATOMS id type xs ys zs
190 1 0.0193781 0.101199 0.0814779
124 1 0.268696 0.018278 0.165467
199 1 0.351054 0.101582 0.0814942
16 1 0.434904 0.018621 -0.00234777
133 1 0.602607 0.0184914 0.164333
208 1 0.685114 0.102243 0.0804035
115 1 0.934414 0.0186884 0.16469
37 1 0.185984 0.269027 0.0800492
172 1 0.269382 0.184967 -0.002549
64 1 0.435237 0.184256 0.165607
46 1 0.51803 0.267898 0.0828904
181 1 0.601097 0.185867 -0.00140019
28 1 0.852562 0.267915 0.081736
193 1 0.0198706 0.434949 0.0804978
1 1 0.101823 0.351489 -0.00317206
202 1 0.352567 0.43552 0.0817183
10 1 0.434592 0.350483 -0.00153585
211 1 0.686652 0.434155 0.0799656
109 1 0.936444 0.351731 0.16381
58 1 0.101167 0.519007 0.165264
40 1 0.184521 0.601195 0.0819454
49 1 0.519474 0.601348 0.0808442
184 1 0.602921 0.517922 -0.00246945
76 1 0.769371 0.517475 0.164209
31 1 0.851531 0.602943 0.0814226
196 1 0.0188839 0.767846 0.0814209
4 1 0.100788 0.683095 -0.00202963
121 1 0.268247 0.685109 0.165358
205 1 0.351661 0.76765 0.080692
13 1 0.436103 0.685569 -0.0019125
130 1 0.602825 0.68371 0.16493
214 1 0.68409 0.767703 0.0803749
22 1 0.767823 0.685109 -0.00344787
112 1 0.934353 0.685809 0.165415
43 1 0.18601 0.934934 0.0811495
70 1 0.43472 0.851019 0.163848
52 1 0.517773 0.93589 0.0820587
79 1 0.767242 0.85131 0.163098
34 1 0.850024 0.935968 0.0808724
92 1 0.185112 0.102902 0.247312
17 1 0.435526 0.0193214 0.330855
101 1 0.520387 0.101991 0.248302
26 1 0.768201 0.0183475 0.329735
83 1 0.851995 0.103242 0.248282
55 1 0.102116 0.186453 0.163218
137 1 0.018872 0.2682 0.246936
146 1 0.35158 0.268434 0.248491
73 1 0.768234 0.184731 0.163974
155 1 0.686545 0.269236 0.249355
164 1 0.936146 0.185611 0.331394
2 1 0.101843 0.35116 0.330792
118 1 0.268251 0.351965 0.16439
95 1 0.184959 0.435706 0.24747
11 1 0.435203 0.351351 0.332759
127 1 0.603027 0.351052 0.164184
104 1 0.519551 0.433336 0.248573
20 1 0.770236 0.352718 0.332237
86 1 0.85324 0.435227 0.24817
140 1 0.0178524 0.60259 0.248341
67 1 0.437513 0.518321 0.165326
149 1 0.352757 0.60233 0.248001
185 1 0.601616 0.518173 0.331681
158 1 0.686362 0.600742 0.24845
167 1 0.935874 0.518304 0.33156
98 1 0.184789 0.767979 0.248461
14 1 0.435961 0.686199 0.330183
107 1 0.519321 0.768833 0.24631
23 1 0.767676 0.685082 0.33192
89 1 0.850776 0.768673 0.247593
61 1 0.10225 0.851601 0.164534
143 1 0.0184558 0.935228 0.247139
152 1 0.352506 0.934658 0.24771
188 1 0.601454 0.851635 0.331287
161 1 0.684643 0.934926 0.247256
170 1 0.935579 0.851609 0.330575
8 1 0.101575 0.019309 0.33
191 1 0.0197625 0.102549 0.414364
200 1 0.352784 0.102397 0.415197
134 1 0.601128 0.0175219 0.498398
209 1 0.68553 0.0993046 0.41508
116 1 0.935294 0.0188768 0.496477
56 1 0.102246 0.186014 0.499326
173 1 0.268871 0.184519 0.331991
38 1 0.18488 0.26798 0.414726
65 1 0.435299 0.185255 0.499274
182 1 0.603763 0.184466 0.332327
47 1 0.519209 0.267215 0.415102
74 1 0.767087 0.185129 0.496838
29 1 0.85223 0.268271 0.415079
194 1 0.020009 0.435746 0.414972
203 1 0.351271 0.436155 0.413899
128 1 0.602032 0.352631 0.497294
212 1 0.685637 0.436141 0.414969
59 1 0.102389 0.519823 0.498881
176 1 0.269053 0.519337 0.330418
41 1 0.185626 0.602646 0.413863
68 1 0.434999 0.519595 0.496774
50 1 0.519142 0.60315 0.414131
77 1 0.768851 0.51995 0.497775
32 1 0.852278 0.602123 0.4143
5 1 0.101583 0.685918 0.332293
197 1 0.0192998 0.770508 0.415015
206 1 0.351411 0.768114 0.414152
131 1 0.60246 0.685974 0.499063
215 1 0.685039 0.768949 0.414232
113 1 0.935833 0.686052 0.497362
179 1 0.268892 0.851876 0.330885
44 1 0.185187 0.93681 0.413314
71 1 0.434114 0.851627 0.498163
53 1 0.51711 0.935045 0.413859
80 1 0.770152 0.852307 0.497601
35 1 0.851985 0.935658 0.413402
125 1 0.26838 0.0183701 0.496574
93 1 0.185695 0.102298 0.581205
102 1 0.518637 0.101016 0.581431
27 1 0.768958 0.0182257 0.665157
84 1 0.851191 0.101051 0.579889
138 1 0.0175918 0.269025 0.581296
174 1 0.26839 0.186342 0.664697
147 1 0.351188 0.269142 0.581211
183 1 0.602178 0.185017 0.663637
156 1 0.684972 0.269025 0.580375
165 1 0.934409 0.183974 0.663364
119 1 0.26834 0.352121 0.49677
96 1 0.185748 0.435563 0.58147
105 1 0.51733 0.435271 0.58017
110 1 0.935747 0.352345 0.496721
87 1 0.85243 0.435571 0.580158
141 1 0.0186344 0.602544 0.580496
177 1 0.268706 0.52019 0.665108
150 1 0.351653 0.602367 0.580364
186 1 0.600916 0.517703 0.664205
159 1 0.685423 0.60209 0.582514
168 1 0.936375 0.518414 0.664086
6 1 0.100906 0.685567 0.664667
122 1 0.267186 0.686825 0.497977
99 1 0.183464 0.769176 0.581806
15 1 0.434441 0.685766 0.665133
108 1 0.517618 0.769172 0.581703
24 1 0.768467 0.68497 0.665922
90 1 0.851434 0.767712 0.581135
62 1 0.102314 0.854439 0.497847
144 1 0.0176855 0.935939 0.581579
153 1 0.349804 0.935304 0.580777
189 1 0.601477 0.852478 0.664073
162 1 0.685875 0.934659 0.581413
171 1 0.934581 0.851432 0.66379
9 1 0.101782 0.0193492 0.663916
192 1 0.0174903 0.100618 0.747345
18 1 0.433733 0.019397 0.664344
201 1 0.351463 0.102438 0.748514
135 1 0.600815 0.0167233 0.830915
210 1 0.684397 0.0999626 0.747597
117 1 0.935536 0.0168936 0.830934
57 1 0.101055 0.185036 0.829529
39 1 0.184928 0.269301 0.748227
48 1 0.51838 0.267954 0.747307
75 1 0.767663 0.185006 0.829663
30 1 0.852087 0.2685 0.746243
3 1 0.101851 0.351727 0.664093
195 1 0.0192816 0.435122 0.747997
12 1 0.435007 0.352442 0.664484
204 1 0.351549 0.436224 0.74819
129 1 0.600974 0.352219 0.831054
21 1 0.768494 0.35258 0.663521
213 1 0.684979 0.434728 0.747109
111 1 0.935119 0.351442 0.830303
60 1 0.101777 0.518199 0.832033
42 1 0.184209 0.602567 0.748572
69 1 0.435481 0.51821 0.831794
51 1 0.517779 0.601941 0.747269
33 1 0.852182 0.600782 0.748136
198 1 0.017582 0.769458 0.748128
207 1 0.349668 0.76927 0.746814
132 1 0.600562 0.68461 0.831693
216 1 0.682851 0.767279 0.747249
114 1 0.934984 0.685279 0.831383
180 1 0.265816 0.853315 0.665057
45 1 0.182516 0.934938 0.748324
72 1 0.433051 0.851245 0.830917
54 1 0.516104 0.934718 0.747106
81 1 0.7676 0.849556 0.830147
36 1 0.85171 0.933788 0.748602
7 1 0.103009 0.0185774 0.998195
126 1 0.267299 0.0182396 0.830181
91 1 0.185021 0.102035 0.91348
100 1 0.519379 0.101085 0.915561
25 1 0.768068 0.0194411 0.995563
82 1 0.852702 0.102847 0.912369
136 1 0.0184601 0.268252 0.913543
66 1 0.436155 0.18376 0.831366
145 1 0.352943 0.268194 0.913868
154 1 0.684602 0.26773 0.913642
163 1 0.935914 0.18412 0.997847
120 1 0.269267 0.351898 0.831182
94 1 0.185918 0.434914 0.914369
103 1 0.517959 0.434577 0.916143
19 1 0.768987 0.349948 0.997535
85 1 0.851077 0.434708 0.914629
139 1 0.0169203 0.600127 0.914164
175 1 0.268954 0.518852 0.998247
148 1 0.352151 0.602261 0.91526
78 1 0.768673 0.517392 0.830427
157 1 0.685045 0.601233 0.913198
166 1 0.933611 0.51818 0.999087
123 1 0.268701 0.685136 0.831652
97 1 0.1841 0.767035 0.914921
106 1 0.517634 0.769656 0.91409
88 1 0.851911 0.768878 0.914417
63 1 0.100247 0.851171 0.833016
142 1 0.0178028 0.934529 0.916429
178 1 0.268354 0.850948 0.997353
151 1 0.350476 0.935529 0.91455
187 1 0.600525 0.852249 0.998159
160 1 0.684669 0.933437 0.914328
169 1 0.933924 0.851482 0.999511
ITEM: TIMESTEP
102000
ITEM: NUMBER OF ATOMS
216
ITEM: BOX BOUNDS pp pp pp
0.0000000000000000e+00 1.6331106185900001e+01
0.0000000000000000e+00 1.6331106185900001e+01
0.0000000000000000e+00 1.6331106185900001e+01
ITEM: ATOMS id type xs ys zs
190 1 0.0171245 0.100048 0.0811108
124 1 0.266201 0.0164853 0.162724
199 1 0.350444 0.099446 0.0789328
16 1 0.434206 0.0143759 -0.00216767
133 1 0.600351 0.0175604 0.164818
208 1 0.684395 0.101198 0.0810557
115 1 0.932898 0.0164592 0.163141
37 1 0.183675 0.267085 0.0804024
172 1 0.266505 0.183986 -0.0028732
64 1 0.432333 0.182794 0.16411
46 1 0.516011 0.266322 0.0819273
181 1 0.597886 0.182279 -0.0010803
28 1 0.850352 0.267172 0.0794169
193 1 0.015272 0.433152 0.080286
1 1 0.100101 0.350038 -0.00265503
202 1 0.349743 0.434149 0.0804062
10 1 0.433618 0.349893 -0.00163444
211 1 0.682355 0.432218 0.0810419
109 1 0.932568 0.349814 0.163429
58 1 0.0982675 0.517085 0.162467
40 1 0.183088 0.600362 0.0795894
49 1 0.516123 0.599297 0.0795562
184 1 0.599229 0.515504 -0.00315004
76 1 0.766971 0.516942 0.161935
31 1 0.850466 0.601401 0.0787215
196 1 0.0154645 0.76635 0.0779371
4 1 0.100367 0.683793 -0.0049506
121 1 0.267002 0.682014 0.163925
205 1 0.34959 0.765998 0.08052
13 1 0.433291 0.683465 -0.00320588
130 1 0.60086 0.681488 0.162014
214 1 0.684921 0.76599 0.0808707
22 1 0.767636 0.68441 -0.00447997
112 1 0.933573 0.683547 0.162406
43 1 0.182076 0.933749 0.0801933
70 1 0.434406 0.84862 0.163138
52 1 0.518258 0.932935 0.0808061
79 1 0.767398 0.849853 0.164635
34 1 0.848855 0.933955 0.0796861
92 1 0.183676 0.101565 0.246439
17 1 0.431841 0.0154378 0.330742
101 1 0.516076 0.100165 0.248279
26 1 0.76615 0.0179064 0.329781
83 1 0.850761 0.10079 0.246843
55 1 0.09969 0.184548 0.164073
137 1 0.0163907 0.2677 0.245872
146 1 0.350459 0.26695 0.247435
73 1 0.767439 0.184588 0.163789
155 1 0.683816 0.264881 0.249094
164 1 0.933783 0.185215 0.328927
2 1 0.100691 0.350256 0.329309
118 1 0.266579 0.350474 0.164708
95 1 0.182059 0.434929 0.246122
11 1 0.433328 0.34966 0.331811
127 1 0.600834 0.347717 0.164749
104 1 0.517436 0.431454 0.247969
20 1 0.766145 0.351547 0.330911
86 1 0.849073 0.434231 0.246657
140 1 0.0164609 0.600943 0.24722
67 1 0.434085 0.515167 0.16498
149 1 0.350338 0.59888 0.247874
185 1 0.599393 0.516965 0.330169
158 1 0.684485 0.599178 0.246564
167 1 0.93321 0.516662 0.329932
98 1 0.183282 0.766932 0.246457
14 1 0.433998 0.683845 0.329901
107 1 0.518091 0.76545 0.245739
23 1 0.766361 0.684309 0.33063
89 1 0.850948 0.766154 0.24672
61 1 0.0991536 0.84865 0.162557
143 1 0.0168805 0.933591 0.246687
152 1 0.349575 0.932277 0.245932
188 1 0.599014 0.850044 0.330333
161 1 0.683316 0.933387 0.2476
170 1 0.932295 0.851343 0.330515
8 1 0.100877 0.0166394 0.328047
191 1 0.0172358 0.101502 0.411148
200 1 0.349573 0.0991998 0.414448
134 1 0.599123 0.0160428 0.498293
209 1 0.68273 0.0990034 0.415796
116 1 0.933463 0.0190651 0.496345
56 1 0.0986805 0.184424 0.497008
173 1 0.266984 0.182996 0.330389
38 1 0.183068 0.266447 0.41366
65 1 0.432046 0.183245 0.497155
182 1 0.59953 0.181747 0.331603
47 1 0.517013 0.266097 0.415188
74 1 0.766305 0.183353 0.496101
29 1 0.849886 0.267551 0.413248
194 1 0.0187953 0.434309 0.412702
203 1 0.350193 0.433966 0.41391
128 1 0.600221 0.349706 0.499162
212 1 0.681885 0.434017 0.414289
59 1 0.101166 0.51628 0.497373
176 1 0.266469 0.516738 0.329827
41 1 0.183223 0.600065 0.4139
68 1 0.434818 0.516803 0.497149
50 1 0.516993 0.600099 0.413738
77 1 0.767758 0.516305 0.495547
32 1 0.850201 0.601009 0.412486
5 1 0.0995652 0.683504 0.33051
197 1 0.0160346 0.767547 0.412957
206 1 0.349316 0.766825 0.413379
131 1 0.600089 0.683127 0.496905
215 1 0.682302 0.767527 0.413403
113 1 0.934052 0.683223 0.497206
179 1 0.266417 0.850594 0.330457
44 1 0.182271 0.933099 0.4127
71 1 0.433092 0.848753 0.497475
53 1 0.515382 0.93338 0.414344
80 1 0.766896 0.850333 0.496475
35 1 0.849459 0.935454 0.413224
125 1 0.265174 0.0157974 0.49641
93 1 0.183348 0.100752 0.57929
102 1 0.515446 0.100131 0.579872
27 1 0.766827 0.0180826 0.663452
84 1 0.849499 0.101092 0.57979
138 1 0.0163343 0.267271 0.581024
174 1 0.265863 0.184314 0.66461
147 1 0.34941 0.266696 0.580524
183 1 0.598866 0.182041 0.664392
156 1 0.683197 0.265522 0.581293
165 1 0.932732 0.184201 0.664658
119 1 0.266997 0.349835 0.497185
96 1 0.184375 0.433835 0.5814
105 1 0.518032 0.434194 0.581269
110 1 0.934663 0.350707 0.496076
87 1 0.850402 0.432635 0.579603
141 1 0.0172435 0.599827 0.57996
177 1 0.268022 0.518114 0.663095
150 1 0.351622 0.601793 0.579859
186 1 0.601874 0.517458 0.665075
159 1 0.684086 0.599829 0.579643
168 1 0.933049 0.517311 0.663263
6 1 0.100735 0.683049 0.662263
122 1 0.266681 0.683556 0.496972
99 1 0.183519 0.766917 0.579321
15 1 0.433682 0.685339 0.663953
108 1 0.518369 0.767151 0.580824
24 1 0.765974 0.684556 0.66306
90 1 0.850859 0.767045 0.579945
62 1 0.100267 0.849233 0.496404
144 1 0.0164426 0.933079 0.579076
153 1 0.350691 0.933287 0.579793
189 1 0.600496 0.850678 0.664877
162 1 0.684131 0.933592 0.580692
171 1 0.933407 0.850196 0.663629
9 1 0.0994049 0.0173099 0.662408
192 1 0.0161365 0.100765 0.746282
18 1 0.432984 0.0166366 0.664437
201 1 0.349639 0.100904 0.746698
135 1 0.600903 0.01635 0.831426
210 1 0.68327 0.0996781 0.748356
117 1 0.934564 0.0157482 0.830014
57 1 0.100727 0.183201 0.830117
39 1 0.183856 0.268073 0.747835
48 1 0.515897 0.266 0.747564
75 1 0.767206 0.184202 0.830554
30 1 0.850161 0.26852 0.748337
3 1 0.100517 0.350287 0.663937
195 1 0.0160646 0.433386 0.745739
12 1 0.433314 0.349191 0.663851
204 1 0.349392 0.432576 0.745917
129 1 0.601056 0.347778 0.830669
21 1 0.766768 0.349742 0.663327
213 1 0.684318 0.432205 0.747921
111 1 0.933496 0.351912 0.831456
60 1 0.0999286 0.515482 0.829924
42 1 0.182789 0.598876 0.74617
69 1 0.433008 0.51457 0.830508
51 1 0.516076 0.598882 0.747267
33 1 0.848564 0.600263 0.746057
198 1 0.0183506 0.766685 0.745459
207 1 0.349553 0.767392 0.746036
132 1 0.599986 0.682242 0.830268
216 1 0.684031 0.767159 0.748391
114 1 0.93344 0.684091 0.826828
180 1 0.265508 0.8512 0.662698
45 1 0.182805 0.933958 0.746333
72 1 0.432992 0.849844 0.830465
54 1 0.516543 0.934455 0.748187
81 1 0.767668 0.850725 0.831487
36 1 0.849786 0.933771 0.747065
7 1 0.099421 0.0172115 0.996853
126 1 0.266722 0.0171851 0.83027
91 1 0.183304 0.099993 0.913203
100 1 0.516325 0.0986421 0.914287
25 1 0.766613 0.017942 0.995121
82 1 0.850882 0.100739 0.912854
136 1 0.01757 0.266928 0.913037
66 1 0.43273 0.182255 0.830847
145 1 0.350204 0.266587 0.913757
154 1 0.68229 0.264575 0.915382
163 1 0.934098 0.183419 0.996867
120 1 0.266748 0.350497 0.831385
94 1 0.183326 0.432692 0.914736
103 1 0.517302 0.431857 0.913114
19 1 0.766187 0.349953 0.997004
85 1 0.848603 0.43492 0.913938
139 1 0.0160328 0.601294 0.911319
175 1 0.265855 0.517533 0.997096
148 1 0.349988 0.598766 0.912856
78 1 0.765358 0.517699 0.830614
157 1 0.682691 0.599792 0.915054
166 1 0.934152 0.517943 0.996526
123 1 0.267354 0.682607 0.827999
97 1 0.185923 0.766157 0.912878
106 1 0.516579 0.765965 0.913447
88 1 0.85173 0.766345 0.912058
63 1 0.101829 0.84943 0.83017
142 1 0.0178337 0.932372 0.912536
178 1 0.266308 0.850426 0.998068
151 1 0.349625 0.932844 0.913628
187 1 0.599822 0.847979 0.997491
160 1 0.682978 0.932703 0.914876
169 1 0.932592 0.851283 0.996241
ITEM: TIMESTEP
102500