LAMMPS (23 Jun 2022)
units metal
dimension 3
atom_style atomic
boundary p p p
read_data data.lammps
Reading data file ...
  orthogonal box = (0 0 0) to (16.331106 16.331106 16.331106)
  1 by 1 by 1 MPI processor grid
  reading atoms ...
  216 atoms
  read_data CPU = 0.028 seconds
pair_style tersoff
pair_coeff * * Si.tersoff Si
Reading tersoff potential file Si.tersoff with DATE: 2007-10-25
mass * 28
thermo 10
run 100
WARNING: No fixes with time integration, atoms won't move (src/verlet.cpp:60)
Neighbor list info ...
  update every 1 steps, delay 10 steps, check yes
  max neighbors/atom: 2000, page size: 100000
  master list distance cutoff = 5.2
  ghost atom cutoff = 5.2
  binsize = 2.6, bins = 7 7 7
  1 neighbor lists, perpetual/occasional/extra = 1 0 0
  (1) pair tersoff, perpetual
      attributes: full, newton on
      pair build: full/bin/atomonly
      stencil: full/bin/3d
      bin: standard
Per MPI rank memory allocation (min/avg/max) = 3.079 | 3.079 | 3.079 Mbytes
   Step          Temp          E_pair         E_mol          TotEng         Press     
         0   0             -1000.1069      0             -1000.1069     -6622.3887    
        10   0             -1000.1069      0             -1000.1069     -6622.3887    
        20   0             -1000.1069      0             -1000.1069     -6622.3887    
        30   0             -1000.1069      0             -1000.1069     -6622.3887    
        40   0             -1000.1069      0             -1000.1069     -6622.3887    
        50   0             -1000.1069      0             -1000.1069     -6622.3887    
        60   0             -1000.1069      0             -1000.1069     -6622.3887    
        70   0             -1000.1069      0             -1000.1069     -6622.3887    
        80   0             -1000.1069      0             -1000.1069     -6622.3887    
        90   0             -1000.1069      0             -1000.1069     -6622.3887    
       100   0             -1000.1069      0             -1000.1069     -6622.3887    
Loop time of 0.0439561 on 1 procs for 100 steps with 216 atoms

Performance: 196.560 ns/day, 0.122 hours/ns, 2274.996 timesteps/s
99.1% CPU use with 1 MPI tasks x no OpenMP threads

MPI task timing breakdown:
Section |  min time  |  avg time  |  max time  |%varavg| %total
---------------------------------------------------------------
Pair    | 0.043432   | 0.043432   | 0.043432   |   0.0 | 98.81
Neigh   | 0          | 0          | 0          |   0.0 |  0.00
Comm    | 0.00029955 | 0.00029955 | 0.00029955 |   0.0 |  0.68
Output  | 9.0415e-05 | 9.0415e-05 | 9.0415e-05 |   0.0 |  0.21
Modify  | 1.1083e-05 | 1.1083e-05 | 1.1083e-05 |   0.0 |  0.03
Other   |            | 0.0001228  |            |       |  0.28

Nlocal:            216 ave         216 max         216 min
Histogram: 1 0 0 0 0 0 0 0 0 0
Nghost:            648 ave         648 max         648 min
Histogram: 1 0 0 0 0 0 0 0 0 0
Neighs:              0 ave           0 max           0 min
Histogram: 1 0 0 0 0 0 0 0 0 0
FullNghs:         6048 ave        6048 max        6048 min
Histogram: 1 0 0 0 0 0 0 0 0 0

Total # of neighbors = 6048
Ave neighs/atom = 28
Neighbor list builds = 0
Dangerous builds = 0
thermo 1000
fix 1 all nve
fix 2 all langevin 0 298 0.1 123456
timestep 0.005
run 100000
Per MPI rank memory allocation (min/avg/max) = 3.079 | 3.079 | 3.079 Mbytes
   Step          Temp          E_pair         E_mol          TotEng         Press     
       100   0             -1000.1069      0             -1000.1069     -6622.3887    
      1000   2.5080862     -1000.0283      0             -999.9586      -6635.9571    
      2000   5.0238803     -999.93767      0             -999.79805     -6625.2355    
      3000   8.7817482     -999.86239      0             -999.61834     -6580.8494    
      4000   11.226581     -999.78497      0             -999.47297     -6677.8441    
      5000   14.485658     -999.68773      0             -999.28516     -6688.4501    
      6000   19.012731     -999.61776      0             -999.08938     -6658.3748    
      7000   19.477872     -999.49508      0             -998.95377     -6869.215     
      8000   22.879538     -999.37255      0             -998.73671     -6811.7734    
      9000   25.915278     -999.37954      0             -998.65933     -6885.0052    
     10000   29.826282     -999.30563      0             -998.47673     -6712.2518    
     11000   36.472845     -999.10802      0             -998.09441     -6714.375     
     12000   35.028898     -999.06783      0             -998.09435     -6648.9986    
     13000   39.224294     -998.9996       0             -997.90952     -6926.2506    
     14000   43.514197     -998.91231      0             -997.703       -6705.1521    
     15000   43.6052       -998.77667      0             -997.56484     -6813.4785    
     16000   43.960705     -998.7033       0             -997.48159     -6853.3206    
     17000   50.808542     -998.74757      0             -997.33555     -6885.7494    
     18000   55.819212     -998.70047      0             -997.1492      -6861.4438    
     19000   59.22566      -998.51825      0             -996.87232     -6765.8223    
     20000   54.494134     -998.50179      0             -996.98735     -6885.9601    
     21000   64.058313     -998.21328      0             -996.43304     -6727.054     
     22000   63.056241     -998.22449      0             -996.4721      -6968.3453    
     23000   67.248777     -998.11003      0             -996.24112     -7117.5115    
     24000   69.081079     -997.83872      0             -995.9189      -6995.2365    
     25000   73.274089     -998.01025      0             -995.9739      -6989.2123    
     26000   79.32819      -997.80013      0             -995.59553     -7111.001     
     27000   81.228585     -997.92304      0             -995.66562     -6964.8888    
     28000   83.682203     -997.59083      0             -995.26522     -6692.2411    
     29000   83.991566     -997.74729      0             -995.41309     -7405.5964    
     30000   89.200483     -997.58776      0             -995.10879     -7345.2323    
     31000   96.657178     -997.2319       0             -994.54571     -6770.6036    
     32000   91.939122     -997.46349      0             -994.90841     -7483.6467    
     33000   100.79486     -997.36005      0             -994.55887     -7283.6608    
     34000   101.91422     -997.09898      0             -994.26669     -7375.7586    
     35000   103.81984     -997.20763      0             -994.32238     -6894.2872    
     36000   103.69028     -996.97044      0             -994.08879     -6878.8568    
     37000   97.13951      -997.27585      0             -994.57625     -6498.1533    
     38000   113.895       -996.56749      0             -993.40224     -7208.8588    
     39000   133.63348     -996.69378      0             -992.97999     -6923.0275    
     40000   117.95051     -996.28728      0             -993.00933     -7569.6738    
     41000   125.82236     -996.86768      0             -993.37096     -7188.9324    
     42000   129.65305     -996.40387      0             -992.80069     -6737.1041    
     43000   118.39227     -996.41395      0             -993.12372     -7446.2002    
     44000   130.80808     -996.2379       0             -992.60262     -7714.115     
     45000   136.19338     -996.2126       0             -992.42766     -7032.5698    
     46000   130.44572     -996.18802      0             -992.56281     -7080.0917    
     47000   144.39869     -996.15878      0             -992.14581     -6891.0243    
     48000   156.4177      -995.83959      0             -991.49259     -6986.607     
     49000   160.71045     -995.92923      0             -991.46293     -7531.9859    
     50000   160.16243     -995.96485      0             -991.51379     -6278.093     
     51000   156.32777     -995.75796      0             -991.41347     -7082.5265    
     52000   144.68902     -995.48215      0             -991.4611      -7626.8808    
     53000   155.46535     -995.29698      0             -990.97645     -7113.9478    
     54000   155.38278     -995.80218      0             -991.48394     -7044.3476    
     55000   164.32493     -995.2868       0             -990.72006     -7219.677     
     56000   160.30479     -994.97576      0             -990.52074     -7427.7155    
     57000   164.20821     -994.68656      0             -990.12307     -7295.9157    
     58000   173.01666     -994.8773       0             -990.06901     -7131.9561    
     59000   175.80137     -995.03496      0             -990.14927     -7115.3954    
     60000   193.49734     -994.83564      0             -989.45817     -6961.0827    
     61000   176.67388     -994.6675       0             -989.75757     -7625.6178    
     62000   203.916       -994.2045       0             -988.53749     -7843.6514    
     63000   185.58785     -994.68316      0             -989.5255      -7203.3482    
     64000   190.35121     -994.15947      0             -988.86943     -7143.3095    
     65000   175.9204      -994.90435      0             -990.01536     -7712.0287    
     66000   199.67971     -994.45586      0             -988.90658     -7294.6446    
     67000   199.99766     -994.59559      0             -989.03747     -7178.2234    
     68000   208.91993     -993.68474      0             -987.87866     -8282.9962    
     69000   190.83152     -994.03495      0             -988.73157     -7619.7752    
     70000   209.54463     -994.57182      0             -988.74838     -6220.3324    
     71000   199.37885     -994.32584      0             -988.78492     -7714.3314    
     72000   197.89093     -993.60423      0             -988.10466     -6925.3453    
     73000   220.45501     -993.07808      0             -986.95143     -7450.2451    
     74000   227.15903     -993.33165      0             -987.01869     -7308.6107    
     75000   238.67601     -994.05679      0             -987.42376     -6600.307     
     76000   241.47457     -993.47509      0             -986.76429     -7981.5062    
     77000   214.68005     -993.39695      0             -987.43079     -8646.812     
     78000   219.95149     -992.83072      0             -986.71807     -8188.2586    
     79000   243.57836     -993.48629      0             -986.71702     -7546.457     
     80000   244.25974     -992.49808      0             -985.70988     -6716.9953    
     81000   258.00321     -993.11796      0             -985.94781     -7262.7839    
     82000   239.72833     -992.9711       0             -986.30883     -6441.8292    
     83000   240.51353     -992.91429      0             -986.2302      -6257.8952    
     84000   221.54623     -993.034        0             -986.87702     -8508.2219    
     85000   280.7995      -993.39688      0             -985.5932      -8446.8576    
     86000   268.93322     -993.19504      0             -985.72113     -7879.8946    
     87000   274.92838     -992.1573       0             -984.51678     -6726.2366    
     88000   257.72139     -992.19779      0             -985.03548     -8179.5275    
     89000   280.15303     -992.58862      0             -984.80291     -7532.0981    
     90000   255.01162     -992.74742      0             -985.66041     -6877.7911    
     91000   279.40387     -991.90888      0             -984.14399     -7475.7062    
     92000   275.26514     -991.93587      0             -984.28599     -7094.0324    
     93000   303.97002     -991.7415       0             -983.29389     -7931.5383    
     94000   272.71942     -991.502        0             -983.92287     -8499.4807    
     95000   293.11976     -991.49886      0             -983.35279     -7053.3369    
     96000   273.87928     -991.26483      0             -983.65347     -6908.9522    
     97000   295.78139     -991.85264      0             -983.6326      -7619.4828    
     98000   286.39722     -991.35578      0             -983.39654     -7727.0221    
     99000   261.28488     -990.735        0             -983.47365     -7931.0968    
    100000   297.6311      -991.21501      0             -982.94356     -7678.0859    
    100100   330.15562     -992.0917       0             -982.91637     -7160.579     
Loop time of 37.3155 on 1 procs for 100000 steps with 216 atoms

Performance: 1157.697 ns/day, 0.021 hours/ns, 2679.854 timesteps/s
99.3% CPU use with 1 MPI tasks x no OpenMP threads

MPI task timing breakdown:
Section |  min time  |  avg time  |  max time  |%varavg| %total
---------------------------------------------------------------
Pair    | 36.043     | 36.043     | 36.043     |   0.0 | 96.59
Neigh   | 0.005244   | 0.005244   | 0.005244   |   0.0 |  0.01
Comm    | 0.27565    | 0.27565    | 0.27565    |   0.0 |  0.74
Output  | 0.0015963  | 0.0015963  | 0.0015963  |   0.0 |  0.00
Modify  | 0.89789    | 0.89789    | 0.89789    |   0.0 |  2.41
Other   |            | 0.09165    |            |       |  0.25

Nlocal:            216 ave         216 max         216 min
Histogram: 1 0 0 0 0 0 0 0 0 0
Nghost:            734 ave         734 max         734 min
Histogram: 1 0 0 0 0 0 0 0 0 0
Neighs:              0 ave           0 max           0 min
Histogram: 1 0 0 0 0 0 0 0 0 0
FullNghs:         6100 ave        6100 max        6100 min
Histogram: 1 0 0 0 0 0 0 0 0 0

Total # of neighbors = 6100
Ave neighs/atom = 28.240741
Neighbor list builds = 22
Dangerous builds = 0
dump 3 all atom 500 dump.Si
run 100000
Per MPI rank memory allocation (min/avg/max) = 3.08 | 3.08 | 3.08 Mbytes
   Step          Temp          E_pair         E_mol          TotEng         Press     
    100100   330.15562     -992.0917       0             -982.91637     -7160.579     
    101000   2.556998      -1000.0274      0             -999.95638     -6634.9846    
    102000   5.3486007     -999.94637      0             -999.79773     -6647.9934    
    103000   8.5888701     -999.86169      0             -999.623       -6658.9437    
    104000   12.161686     -999.80296      0             -999.46497     -6654.0353    
    105000   12.337309     -999.71128      0             -999.36842     -6658.2836    
    106000   18.406086     -999.62221      0             -999.11069     -6615.4513    
    107000   19.491738     -999.45905      0             -998.91736     -6767.4756    
    108000   25.955097     -999.52637      0             -998.80505     -6753.1484    
    109000   27.163691     -999.34357      0             -998.58867     -6837.3444    
    110000   29.251689     -999.263        0             -998.45007     -6848.6974    
    111000   34.249843     -999.19725      0             -998.24541     -6675.072     
    112000   31.302045     -999.05846      0             -998.18854     -6679.3492    
    113000   41.928203     -999.04609      0             -997.88087     -6790.8142    
    114000   40.990503     -998.93591      0             -997.79674     -6961.7688    
    115000   46.00124      -998.72466      0             -997.44624     -6726.2366    
    116000   44.87912      -998.7998       0             -997.55257     -6695.6838    
    117000   49.916252     -998.50937      0             -997.12215     -7003.7112    
    118000   55.598965     -998.68897      0             -997.14383     -6548.1588    
    119000   57.245872     -998.4406       0             -996.84968     -6892.2436    
    120000   65.777279     -998.37067      0             -996.54266     -6642.3629    
    121000   61.545323     -998.34133      0             -996.63093     -7081.2573    
    122000   64.304525     -998.21626      0             -996.42918     -6368.2211    
    123000   72.074929     -998.13851      0             -996.13548     -6592.8856    
    124000   75.947442     -997.9201       0             -995.80945     -6812.6752    
    125000   78.420886     -998.12488      0             -995.94549     -7165.2247    
    126000   79.594702     -998.05692      0             -995.84491     -6665.3779    
    127000   85.582291     -997.43767      0             -995.05926     -6881.5984    
    128000   84.584487     -997.69572      0             -995.34504     -7063.8337    
    129000   96.463821     -997.67464      0             -994.99382     -6886.6525    
    130000   94.684973     -997.55931      0             -994.92792     -6956.2547    
    131000   89.605512     -997.66392      0             -995.1737      -6378.5514    
    132000   95.207912     -997.37891      0             -994.73299     -7183.997     
    133000   90.58469      -997.29553      0             -994.7781      -6852.6944    
    134000   107.22605     -996.7832       0             -993.80329     -7293.5079    
    135000   107.14668     -996.91924      0             -993.94153     -6383.2538    
    136000   110.81607     -997.1917       0             -994.11201     -7315.3029    
    137000   109.96253     -996.93038      0             -993.87441     -7207.1656    
    138000   101.98464     -996.90858      0             -994.07433     -7312.9449    
    139000   113.35841     -996.53496      0             -993.38462     -6721.0719    
    140000   115.98672     -996.42927      0             -993.20589     -7219.8615    
    141000   130.36724     -996.82834      0             -993.20531     -7265.2039    
    142000   121.51076     -996.24761      0             -992.87071     -7013.0884    
    143000   131.42756     -996.06898      0             -992.41648     -6797.4306    
    144000   130.34358     -996.65936      0             -993.03699     -6581.0851    
    145000   145.50831     -995.8867       0             -991.84289     -8031.9873    
    146000   135.7506      -995.99136      0             -992.21872     -7038.6595    
    147000   145.40463     -996.12468      0             -992.08375     -7801.1239    
    148000   136.01303     -996.14699      0             -992.36706     -7116.5888    
    149000   134.69194     -996.15781      0             -992.41459     -6672.8283    
    150000   146.61563     -995.72338      0             -991.64879     -6966.3983    
    151000   153.89967     -995.82191      0             -991.5449      -6885.7164    
    152000   159.3907      -995.57466      0             -991.14504     -6692.9581    
    153000   163.18603     -995.70972      0             -991.17463     -7594.5604    
    154000   156.81129     -995.6824       0             -991.32447     -6100.2672    
    155000   178.58633     -995.67809      0             -990.715       -6278.8478    
    156000   156.9701      -995.0884       0             -990.72605     -7040.9464    
    157000   174.77581     -994.61871      0             -989.76153     -6960.1242    
    158000   152.71227     -995.0971       0             -990.85308     -7469.4177    
    159000   171.15327     -994.69494      0             -989.93843     -7425.4966    
    160000   176.16648     -994.82833      0             -989.9325      -7172.0311    
    161000   190.58029     -994.85436      0             -989.55795     -7935.5825    
    162000   183.6743      -994.6879       0             -989.58342     -7055.5767    
    163000   180.96696     -994.36681      0             -989.33757     -7022.0141    
    164000   201.55122     -994.78227      0             -989.18097     -6712.5762    
    165000   201.11399     -994.35529      0             -988.76615     -7759.5352    
    166000   188.56185     -994.33327      0             -989.09296     -7816.4546    
    167000   202.71512     -994.26916      0             -988.63552     -8878.344     
    168000   187.98833     -993.87832      0             -988.65395     -7144.5106    
    169000   224.59205     -994.16544      0             -987.92382     -7238.5596    
    170000   199.56524     -993.66024      0             -988.11414     -7211.0447    
    171000   190.28721     -994.31155      0             -989.0233      -7532.2977    
    172000   226.14806     -994.18336      0             -987.8985      -8504.5886    
    173000   207.52109     -994.32075      0             -988.55355     -6931.6156    
    174000   218.63505     -993.43534      0             -987.35927     -7296.7914    
    175000   240.15279     -993.70166      0             -987.02759     -7427.573     
    176000   233.72457     -993.31687      0             -986.82145     -6909.5095    
    177000   228.32158     -993.02258      0             -986.67731     -8347.5093    
    178000   247.22237     -993.87648      0             -987.00594     -6777.4733    
    179000   245.44995     -992.90761      0             -986.08632     -8160.2918    
    180000   235.7615      -992.85974      0             -986.3077      -6749.7712    
    181000   271.29879     -993.3656       0             -985.82596     -6502.3031    
    182000   257.08014     -992.41907      0             -985.27457     -6631.7877    
    183000   249.96586     -993.25542      0             -986.30864     -8308.1401    
    184000   257.25848     -993.66729      0             -986.51784     -7721.3076    
    185000   257.77172     -992.55534      0             -985.39162     -7704.7464    
    186000   243.12334     -992.65915      0             -985.90253     -7791.6653    
    187000   271.15996     -993.08728      0             -985.55149     -6053.2643    
    188000   278.39812     -992.26316      0             -984.52622     -8229.2939    
    189000   272.92385     -991.21058      0             -983.62577     -8602.9115    
    190000   252.11897     -992.18578      0             -985.17916     -8135.0903    
    191000   294.06315     -992.57601      0             -984.40372     -8234.9026    
    192000   267.10961     -992.05434      0             -984.63112     -7617.4891    
    193000   297.1072      -992.46027      0             -984.20339     -7251.3558    
    194000   281.86599     -992.03713      0             -984.20381     -8059.0713    
    195000   324.50026     -991.6527       0             -982.63454     -9050.7864    
    196000   290.18004     -992.07339      0             -984.00902     -8287.5445    
    197000   292.95446     -991.38366      0             -983.24219     -8230.155     
    198000   308.91828     -991.50128      0             -982.91615     -8306.2958    
    199000   305.17481     -990.44554      0             -981.96445     -7677.1772    
    200000   317.25805     -991.39155      0             -982.57466     -8352.7843    
    200100   289.79436     -991.43845      0             -983.3848      -8084.2551    
Loop time of 37.6508 on 1 procs for 100000 steps with 216 atoms

Performance: 1147.385 ns/day, 0.021 hours/ns, 2655.983 timesteps/s
99.1% CPU use with 1 MPI tasks x no OpenMP threads

MPI task timing breakdown:
Section |  min time  |  avg time  |  max time  |%varavg| %total
---------------------------------------------------------------
Pair    | 36.326     | 36.326     | 36.326     |   0.0 | 96.48
Neigh   | 0.0072378  | 0.0072378  | 0.0072378  |   0.0 |  0.02
Comm    | 0.28117    | 0.28117    | 0.28117    |   0.0 |  0.75
Output  | 0.039547   | 0.039547   | 0.039547   |   0.0 |  0.11
Modify  | 0.90306    | 0.90306    | 0.90306    |   0.0 |  2.40
Other   |            | 0.09368    |            |       |  0.25

Nlocal:            216 ave         216 max         216 min
Histogram: 1 0 0 0 0 0 0 0 0 0
Nghost:            706 ave         706 max         706 min
Histogram: 1 0 0 0 0 0 0 0 0 0
Neighs:              0 ave           0 max           0 min
Histogram: 1 0 0 0 0 0 0 0 0 0
FullNghs:         6124 ave        6124 max        6124 min
Histogram: 1 0 0 0 0 0 0 0 0 0

Total # of neighbors = 6124
Ave neighs/atom = 28.351852
Neighbor list builds = 27
Dangerous builds = 0
