data.lammps (written by ASE) 

216 	 atoms 
1  atom types
0.0      16.331106185900001  xlo xhi
0.0      16.331106185900001  ylo yhi
0.0      16.331106185900001  zlo zhi


Atoms 

     1   1      4.0827765459999998      4.0827765459999998      1.3609200809999999
     2   1      4.0827765459999998      4.0827765459999998      6.8046332559999998
     3   1      4.0827765459999998      4.0827765459999998            12.248329639
     4   1      4.0827765459999998      9.5264734170000001      1.3609200809999999
     5   1      4.0827765459999998      9.5264734170000001      6.8046332559999998
     6   1      4.0827765459999998      9.5264734170000001            12.248329639
     7   1      4.0827765459999998      14.970185861999999      1.3609200809999999
     8   1      4.0827765459999998      14.970185861999999      6.8046332559999998
     9   1      4.0827765459999998      14.970185861999999            12.248329639
    10   1      9.5264734170000001      4.0827765459999998      1.3609200809999999
    11   1      9.5264734170000001      4.0827765459999998      6.8046332559999998
    12   1      9.5264734170000001      4.0827765459999998            12.248329639
    13   1      9.5264734170000001      9.5264734170000001      1.3609200809999999
    14   1      9.5264734170000001      9.5264734170000001      6.8046332559999998
    15   1      9.5264734170000001      9.5264734170000001            12.248329639
    16   1      9.5264734170000001      14.970185861999999      1.3609200809999999
    17   1      9.5264734170000001      14.970185861999999      6.8046332559999998
    18   1      9.5264734170000001      14.970185861999999            12.248329639
    19   1      14.970185861999999      4.0827765459999998      1.3609200809999999
    20   1      14.970185861999999      4.0827765459999998      6.8046332559999998
    21   1      14.970185861999999      4.0827765459999998            12.248329639
    22   1      14.970185861999999      9.5264734170000001      1.3609200809999999
    23   1      14.970185861999999      9.5264734170000001      6.8046332559999998
    24   1      14.970185861999999      9.5264734170000001            12.248329639
    25   1      14.970185861999999      14.970185861999999      1.3609200809999999
    26   1      14.970185861999999      14.970185861999999      6.8046332559999998
    27   1      14.970185861999999      14.970185861999999            12.248329639
    28   1                       0      2.7218564660000002      2.7218564660000002
    29   1                       0      2.7218564660000002      8.1655530929999998
    30   1                       0      2.7218564660000002            13.609249963
    31   1                       0      8.1655530929999998      2.7218564660000002
    32   1                       0      8.1655530929999998      8.1655530929999998
    33   1                       0      8.1655530929999998            13.609249963
    34   1                       0            13.609249963      2.7218564660000002
    35   1                       0            13.609249963      8.1655530929999998
    36   1                       0            13.609249963            13.609249963
    37   1      5.4436963839999999      2.7218564660000002      2.7218564660000002
    38   1      5.4436963839999999      2.7218564660000002      8.1655530929999998
    39   1      5.4436963839999999      2.7218564660000002            13.609249963
    40   1      5.4436963839999999      8.1655530929999998      2.7218564660000002
    41   1      5.4436963839999999      8.1655530929999998      8.1655530929999998
    42   1      5.4436963839999999      8.1655530929999998            13.609249963
    43   1      5.4436963839999999            13.609249963      2.7218564660000002
    44   1      5.4436963839999999            13.609249963      8.1655530929999998
    45   1      5.4436963839999999            13.609249963            13.609249963
    46   1      10.887409314999999      2.7218564660000002      2.7218564660000002
    47   1      10.887409314999999      2.7218564660000002      8.1655530929999998
    48   1      10.887409314999999      2.7218564660000002            13.609249963
    49   1      10.887409314999999      8.1655530929999998      2.7218564660000002
    50   1      10.887409314999999      8.1655530929999998      8.1655530929999998
    51   1      10.887409314999999      8.1655530929999998            13.609249963
    52   1      10.887409314999999            13.609249963      2.7218564660000002
    53   1      10.887409314999999            13.609249963      8.1655530929999998
    54   1      10.887409314999999            13.609249963            13.609249963
    55   1      4.0827765459999998      1.3609200809999999      4.0827765459999998
    56   1      4.0827765459999998      1.3609200809999999      9.5264734170000001
    57   1      4.0827765459999998      1.3609200809999999      14.970185861999999
    58   1      4.0827765459999998      6.8046332559999998      4.0827765459999998
    59   1      4.0827765459999998      6.8046332559999998      9.5264734170000001
    60   1      4.0827765459999998      6.8046332559999998      14.970185861999999
    61   1      4.0827765459999998            12.248329639      4.0827765459999998
    62   1      4.0827765459999998            12.248329639      9.5264734170000001
    63   1      4.0827765459999998            12.248329639      14.970185861999999
    64   1      9.5264734170000001      1.3609200809999999      4.0827765459999998
    65   1      9.5264734170000001      1.3609200809999999      9.5264734170000001
    66   1      9.5264734170000001      1.3609200809999999      14.970185861999999
    67   1      9.5264734170000001      6.8046332559999998      4.0827765459999998
    68   1      9.5264734170000001      6.8046332559999998      9.5264734170000001
    69   1      9.5264734170000001      6.8046332559999998      14.970185861999999
    70   1      9.5264734170000001            12.248329639      4.0827765459999998
    71   1      9.5264734170000001            12.248329639      9.5264734170000001
    72   1      9.5264734170000001            12.248329639      14.970185861999999
    73   1      14.970185861999999      1.3609200809999999      4.0827765459999998
    74   1      14.970185861999999      1.3609200809999999      9.5264734170000001
    75   1      14.970185861999999      1.3609200809999999      14.970185861999999
    76   1      14.970185861999999      6.8046332559999998      4.0827765459999998
    77   1      14.970185861999999      6.8046332559999998      9.5264734170000001
    78   1      14.970185861999999      6.8046332559999998      14.970185861999999
    79   1      14.970185861999999            12.248329639      4.0827765459999998
    80   1      14.970185861999999            12.248329639      9.5264734170000001
    81   1      14.970185861999999            12.248329639      14.970185861999999
    82   1                       0                       0                       0
    83   1                       0                       0      5.4436963839999999
    84   1                       0                       0      10.887409314999999
    85   1                       0      5.4436963839999999                       0
    86   1                       0      5.4436963839999999      5.4436963839999999
    87   1                       0      5.4436963839999999      10.887409314999999
    88   1                       0      10.887409314999999                       0
    89   1                       0      10.887409314999999      5.4436963839999999
    90   1                       0      10.887409314999999      10.887409314999999
    91   1      5.4436963839999999                       0                       0
    92   1      5.4436963839999999                       0      5.4436963839999999
    93   1      5.4436963839999999                       0      10.887409314999999
    94   1      5.4436963839999999      5.4436963839999999                       0
    95   1      5.4436963839999999      5.4436963839999999      5.4436963839999999
    96   1      5.4436963839999999      5.4436963839999999      10.887409314999999
    97   1      5.4436963839999999      10.887409314999999                       0
    98   1      5.4436963839999999      10.887409314999999      5.4436963839999999
    99   1      5.4436963839999999      10.887409314999999      10.887409314999999
   100   1      10.887409314999999                       0                       0
   101   1      10.887409314999999                       0      5.4436963839999999
   102   1      10.887409314999999                       0      10.887409314999999
   103   1      10.887409314999999      5.4436963839999999                       0
   104   1      10.887409314999999      5.4436963839999999      5.4436963839999999
   105   1      10.887409314999999      5.4436963839999999      10.887409314999999
   106   1      10.887409314999999      10.887409314999999                       0
   107   1      10.887409314999999      10.887409314999999      5.4436963839999999
   108   1      10.887409314999999      10.887409314999999      10.887409314999999
   109   1      1.3609200809999999      4.0827765459999998      4.0827765459999998
   110   1      1.3609200809999999      4.0827765459999998      9.5264734170000001
   111   1      1.3609200809999999      4.0827765459999998      14.970185861999999
   112   1      1.3609200809999999      9.5264734170000001      4.0827765459999998
   113   1      1.3609200809999999      9.5264734170000001      9.5264734170000001
   114   1      1.3609200809999999      9.5264734170000001      14.970185861999999
   115   1      1.3609200809999999      14.970185861999999      4.0827765459999998
   116   1      1.3609200809999999      14.970185861999999      9.5264734170000001
   117   1      1.3609200809999999      14.970185861999999      14.970185861999999
   118   1      6.8046332559999998      4.0827765459999998      4.0827765459999998
   119   1      6.8046332559999998      4.0827765459999998      9.5264734170000001
   120   1      6.8046332559999998      4.0827765459999998      14.970185861999999
   121   1      6.8046332559999998      9.5264734170000001      4.0827765459999998
   122   1      6.8046332559999998      9.5264734170000001      9.5264734170000001
   123   1      6.8046332559999998      9.5264734170000001      14.970185861999999
   124   1      6.8046332559999998      14.970185861999999      4.0827765459999998
   125   1      6.8046332559999998      14.970185861999999      9.5264734170000001
   126   1      6.8046332559999998      14.970185861999999      14.970185861999999
   127   1            12.248329639      4.0827765459999998      4.0827765459999998
   128   1            12.248329639      4.0827765459999998      9.5264734170000001
   129   1            12.248329639      4.0827765459999998      14.970185861999999
   130   1            12.248329639      9.5264734170000001      4.0827765459999998
   131   1            12.248329639      9.5264734170000001      9.5264734170000001
   132   1            12.248329639      9.5264734170000001      14.970185861999999
   133   1            12.248329639      14.970185861999999      4.0827765459999998
   134   1            12.248329639      14.970185861999999      9.5264734170000001
   135   1            12.248329639      14.970185861999999      14.970185861999999
   136   1      2.7218564660000002      2.7218564660000002                       0
   137   1      2.7218564660000002      2.7218564660000002      5.4436963839999999
   138   1      2.7218564660000002      2.7218564660000002      10.887409314999999
   139   1      2.7218564660000002      8.1655530929999998                       0
   140   1      2.7218564660000002      8.1655530929999998      5.4436963839999999
   141   1      2.7218564660000002      8.1655530929999998      10.887409314999999
   142   1      2.7218564660000002            13.609249963                       0
   143   1      2.7218564660000002            13.609249963      5.4436963839999999
   144   1      2.7218564660000002            13.609249963      10.887409314999999
   145   1      8.1655530929999998      2.7218564660000002                       0
   146   1      8.1655530929999998      2.7218564660000002      5.4436963839999999
   147   1      8.1655530929999998      2.7218564660000002      10.887409314999999
   148   1      8.1655530929999998      8.1655530929999998                       0
   149   1      8.1655530929999998      8.1655530929999998      5.4436963839999999
   150   1      8.1655530929999998      8.1655530929999998      10.887409314999999
   151   1      8.1655530929999998            13.609249963                       0
   152   1      8.1655530929999998            13.609249963      5.4436963839999999
   153   1      8.1655530929999998            13.609249963      10.887409314999999
   154   1            13.609249963      2.7218564660000002                       0
   155   1            13.609249963      2.7218564660000002      5.4436963839999999
   156   1            13.609249963      2.7218564660000002      10.887409314999999
   157   1            13.609249963      8.1655530929999998                       0
   158   1            13.609249963      8.1655530929999998      5.4436963839999999
   159   1            13.609249963      8.1655530929999998      10.887409314999999
   160   1            13.609249963            13.609249963                       0
   161   1            13.609249963            13.609249963      5.4436963839999999
   162   1            13.609249963            13.609249963      10.887409314999999
   163   1      1.3609200809999999      1.3609200809999999      1.3609200809999999
   164   1      1.3609200809999999      1.3609200809999999      6.8046332559999998
   165   1      1.3609200809999999      1.3609200809999999            12.248329639
   166   1      1.3609200809999999      6.8046332559999998      1.3609200809999999
   167   1      1.3609200809999999      6.8046332559999998      6.8046332559999998
   168   1      1.3609200809999999      6.8046332559999998            12.248329639
   169   1      1.3609200809999999            12.248329639      1.3609200809999999
   170   1      1.3609200809999999            12.248329639      6.8046332559999998
   171   1      1.3609200809999999            12.248329639            12.248329639
   172   1      6.8046332559999998      1.3609200809999999      1.3609200809999999
   173   1      6.8046332559999998      1.3609200809999999      6.8046332559999998
   174   1      6.8046332559999998      1.3609200809999999            12.248329639
   175   1      6.8046332559999998      6.8046332559999998      1.3609200809999999
   176   1      6.8046332559999998      6.8046332559999998      6.8046332559999998
   177   1      6.8046332559999998      6.8046332559999998            12.248329639
   178   1      6.8046332559999998            12.248329639      1.3609200809999999
   179   1      6.8046332559999998            12.248329639      6.8046332559999998
   180   1      6.8046332559999998            12.248329639            12.248329639
   181   1            12.248329639      1.3609200809999999      1.3609200809999999
   182   1            12.248329639      1.3609200809999999      6.8046332559999998
   183   1            12.248329639      1.3609200809999999            12.248329639
   184   1            12.248329639      6.8046332559999998      1.3609200809999999
   185   1            12.248329639      6.8046332559999998      6.8046332559999998
   186   1            12.248329639      6.8046332559999998            12.248329639
   187   1            12.248329639            12.248329639      1.3609200809999999
   188   1            12.248329639            12.248329639      6.8046332559999998
   189   1            12.248329639            12.248329639            12.248329639
   190   1      2.7218564660000002                       0      2.7218564660000002
   191   1      2.7218564660000002                       0      8.1655530929999998
   192   1      2.7218564660000002                       0            13.609249963
   193   1      2.7218564660000002      5.4436963839999999      2.7218564660000002
   194   1      2.7218564660000002      5.4436963839999999      8.1655530929999998
   195   1      2.7218564660000002      5.4436963839999999            13.609249963
   196   1      2.7218564660000002      10.887409314999999      2.7218564660000002
   197   1      2.7218564660000002      10.887409314999999      8.1655530929999998
   198   1      2.7218564660000002      10.887409314999999            13.609249963
   199   1      8.1655530929999998                       0      2.7218564660000002
   200   1      8.1655530929999998                       0      8.1655530929999998
   201   1      8.1655530929999998                       0            13.609249963
   202   1      8.1655530929999998      5.4436963839999999      2.7218564660000002
   203   1      8.1655530929999998      5.4436963839999999      8.1655530929999998
   204   1      8.1655530929999998      5.4436963839999999            13.609249963
   205   1      8.1655530929999998      10.887409314999999      2.7218564660000002
   206   1      8.1655530929999998      10.887409314999999      8.1655530929999998
   207   1      8.1655530929999998      10.887409314999999            13.609249963
   208   1            13.609249963                       0      2.7218564660000002
   209   1            13.609249963                       0      8.1655530929999998
   210   1            13.609249963                       0            13.609249963
   211   1            13.609249963      5.4436963839999999      2.7218564660000002
   212   1            13.609249963      5.4436963839999999      8.1655530929999998
   213   1            13.609249963      5.4436963839999999            13.609249963
   214   1            13.609249963      10.887409314999999      2.7218564660000002
   215   1            13.609249963      10.887409314999999      8.1655530929999998
   216   1            13.609249963      10.887409314999999            13.609249963
